LAMMPS data file generated by tc387 with a python script for hex membrane

16999   atoms
0   bonds
16999   ellipsoids

4 atom types
0 bond types

-30.0 30.0 xlo xhi 
-30.0 30.0 ylo yhi 
-30.0 30.0 zlo zhi 

Atoms # ellipsoid

1	4	1	1	6.51	14.48	-15.35
2	4	1	1	2.82	6.04	19.88
3	4	1	1	-3.43	19.29	-11.64
4	4	1	1	1.11	19.09	6.18
5	4	1	1	11.04	0.17	17.53
6	4	1	1	-13.89	15.79	0.67
7	4	1	1	-6.14	13.19	15.05
8	4	1	1	15.8	-9.03	10.93
9	4	1	1	-10.61	17.95	3.24
10	4	1	1	6.92	-1.48	19.41
11	4	1	1	11.98	4.3	15.82
12	4	1	1	-7.38	18.21	-10.21
13	4	1	1	13.99	10.92	10.39
14	4	1	1	3.4	7.93	18.91
15	4	1	1	-0.6	-3.52	20.8
16	4	1	1	10.15	17.53	1.35
17	4	1	1	-7.33	-1.24	18.83
18	4	1	1	11.02	17.19	-4.46
19	4	1	1	2.14	8.07	19.45
20	4	1	1	8.07	17.62	6.06
21	4	1	1	2.61	20.65	-8.55
22	4	1	1	10.66	14.75	10.28
23	4	1	1	-5.78	16.62	-12.87
24	4	1	1	14.44	7.78	11.78
25	4	1	1	-0.46	18.93	-13.39
26	4	1	1	-18.19	7.51	5.38
27	4	1	1	4.13	10.13	17.85
28	4	1	1	-7.55	18.98	6.83
29	4	1	1	14.33	-12.68	9.72
30	4	1	1	10.63	12.23	-12.31
31	4	1	1	13.89	10.39	-9.45
32	4	1	1	-8.0	19.48	2.97
33	4	1	1	12.02	-12.24	-10.36
34	4	1	1	8.42	15.14	11.02
35	4	1	1	7.43	14.02	-14.93
36	4	1	1	6.07	20.13	-5.87
37	4	1	1	-2.99	20.52	-7.31
38	4	1	1	6.34	20.24	-4.05
39	4	1	1	-7.19	-17.33	5.92
40	4	1	1	9.7	6.27	17.44
41	4	1	1	10.04	18.07	-1.35
42	4	1	1	4.75	13.99	-17.19
43	4	1	1	-0.87	-8.49	20.15
44	4	1	1	-2.51	16.25	12.1
45	4	1	1	-4.7	18.54	-11.47
46	4	1	1	-3.6	8.35	18.83
47	4	1	1	13.57	1.08	15.08
48	4	1	1	-2.41	12.28	16.52
49	4	1	1	-3.34	11.73	16.5
50	4	1	1	6.75	4.96	19.34
51	4	1	1	11.43	15.05	5.52
52	4	1	1	5.31	-0.3	19.84
53	4	1	1	8.87	6.53	17.75
54	4	1	1	0.34	20.25	-11.01
55	4	1	1	8.93	18.78	0.83
56	4	1	1	-9.8	18.29	-0.75
57	4	1	1	3.19	16.34	11.78
58	4	1	1	6.97	19.48	-6.27
59	4	1	1	-8.27	16.25	-12.32
60	4	1	1	-4.27	-13.85	-14.2
61	4	1	1	-13.86	-1.68	13.98
62	4	1	1	-16.22	-8.86	3.18
63	4	1	1	7.79	4.25	18.98
64	4	1	1	10.16	15.57	-10.19
65	4	1	1	-5.09	4.06	-20.93
66	4	1	1	-9.45	15.73	-11.92
67	4	1	1	-14.7	-12.15	-4.44
68	4	1	1	-10.79	-2.9	16.08
69	4	1	1	-10.95	4.2	16.73
70	4	1	1	-8.74	15.8	10.12
71	4	1	1	-13.58	-12.63	-9.68
72	4	1	1	-2.53	-20.08	2.76
73	4	1	1	5.68	-9.64	-15.23
74	4	1	1	-16.33	13.18	-1.71
75	4	1	1	0.06	-4.94	-18.76
76	4	1	1	-9.68	-1.24	-18.78
77	4	1	1	15.62	-13.44	4.29
78	4	1	1	-10.57	-10.03	10.85
79	4	1	1	-19.25	-3.98	-4.38
80	4	1	1	-17.36	-8.14	-4.61
81	4	1	1	-3.8	14.29	-16.23
82	4	1	1	-9.1	-6.05	-17.47
83	4	1	1	-7.0	-2.33	18.78
84	4	1	1	5.65	-6.89	20.22
85	4	1	1	3.22	19.18	5.76
86	4	1	1	-13.94	13.55	6.42
87	4	1	1	8.08	5.28	-17.67
88	4	1	1	-19.57	-0.49	0.82
89	4	1	1	-10.2	-6.07	-16.73
90	4	1	1	-17.97	6.72	6.01
91	4	1	1	-1.1	-17.6	-9.48
92	4	1	1	12.19	-13.13	-9.26
93	4	1	1	-12.73	16.31	-0.99
94	4	1	1	-9.6	-1.92	16.84
95	4	1	1	9.79	11.26	-14.34
96	4	1	1	0.56	19.13	-13.1
97	4	1	1	-16.9	4.5	9.71
98	4	1	1	-17.41	10.55	1.78
99	4	1	1	-2.2	20.07	5.42
100	4	1	1	-13.92	9.22	-14.45
101	4	1	1	12.82	-15.63	-0.17
102	4	1	1	-0.07	14.69	14.98
103	4	1	1	-4.73	-16.32	-10.76
104	4	1	1	-19.09	6.48	1.27
105	4	1	1	-1.58	14.18	-16.99
106	4	1	1	10.96	13.52	10.84
107	4	1	1	0.33	12.26	17.44
108	4	1	1	2.99	21.09	-5.35
109	4	1	1	-20.21	-1.04	-3.84
110	4	1	1	12.85	7.1	-12.55
111	4	1	1	-19.32	-0.61	-8.33
112	4	1	1	-10.99	12.59	-14.23
113	4	1	1	8.87	-2.73	-16.27
114	4	1	1	8.85	-3.88	-16.19
115	4	1	1	5.07	2.92	-19.21
116	4	1	1	5.43	15.53	-15.48
117	4	1	1	-2.37	7.82	-20.3
118	4	1	1	12.33	4.14	-13.58
119	4	1	1	11.97	13.2	10.38
120	4	1	1	-3.78	11.73	-18.17
121	4	1	1	5.7	-4.08	-17.18
122	4	1	1	-13.85	14.02	-8.62
123	4	1	1	-8.33	10.81	-17.52
124	4	1	1	-2.62	20.57	-8.26
125	4	1	1	1.83	19.49	5.37
126	4	1	1	-15.98	6.75	-13.42
127	4	1	1	3.4	1.46	-19.94
128	4	1	1	-0.04	20.93	0.55
129	4	1	1	-2.62	14.26	-16.42
130	4	1	1	-2.44	21.31	-4.55
131	4	1	1	-2.02	-17.55	-8.31
132	4	1	1	12.36	-16.49	4.76
133	4	1	1	6.29	17.18	8.64
134	4	1	1	-14.94	-5.14	-13.76
135	4	1	1	-8.31	2.5	-19.8
136	4	1	1	-1.26	1.55	-21.45
137	4	1	1	-14.36	-3.18	-14.48
138	4	1	1	-6.55	1.21	-20.44
139	4	1	1	-6.21	2.03	-20.21
140	4	1	1	14.26	11.53	9.54
141	4	1	1	-7.95	-0.55	-19.69
142	4	1	1	-8.25	-16.27	-8.69
143	4	1	1	-2.52	-11.18	-16.42
144	4	1	1	-1.03	15.15	-16.18
145	4	1	1	-3.15	15.09	-15.69
146	4	1	1	-1.83	5.79	-20.8
147	4	1	1	-16.39	2.83	-13.43
148	4	1	1	5.95	4.08	-19.1
149	4	1	1	2.77	15.01	-17.2
150	4	1	1	3.69	14.25	-17.62
151	4	1	1	3.69	-9.34	-16.28
152	4	1	1	-13.82	-5.27	-14.49
153	4	1	1	-9.63	5.8	-18.17
154	4	1	1	-11.6	13.23	-13.48
155	4	1	1	-17.38	-6.34	-8.35
156	4	1	1	10.28	16.59	-8.15
157	4	1	1	-8.65	-7.94	-16.64
158	4	1	1	-5.88	-2.55	-20.02
159	4	1	1	-14.96	12.2	-9.88
160	4	1	1	11.24	-15.59	-5.41
161	4	1	1	-15.3	12.85	-7.8
162	4	1	1	-10.41	15.67	-11.25
163	4	1	1	5.1	17.29	8.75
164	4	1	1	10.64	11.42	-13.31
165	4	1	1	12.35	8.1	-13.17
166	4	1	1	2.28	10.15	-19.86
167	4	1	1	-17.72	-6.68	-6.64
168	4	1	1	-1.13	-9.36	-17.77
169	4	1	1	1.02	20.0	4.4
170	4	1	1	-13.26	13.71	-10.86
171	4	1	1	-3.13	19.81	-10.76
172	4	1	1	-19.2	5.22	1.68
173	4	1	1	5.19	19.56	-10.04
174	4	1	1	-5.14	20.03	3.71
175	4	1	1	-3.69	17.22	10.4
176	4	1	1	-7.32	19.93	1.02
177	4	1	1	-6.17	19.95	-6.7
178	4	1	1	-7.52	7.91	17.64
179	4	1	1	1.01	19.89	-11.66
180	4	1	1	-4.48	15.47	12.43
181	4	1	1	-12.94	13.19	-12.04
182	4	1	1	-12.98	14.56	6.26
183	4	1	1	-2.28	21.11	0.66
184	4	1	1	7.37	18.56	-9.7
185	4	1	1	-18.37	10.36	-2.41
186	4	1	1	-16.59	7.45	-12.03
187	4	1	1	6.34	12.19	-17.29
188	4	1	1	-4.2	20.85	-5.44
189	4	1	1	-1.14	21.7	-3.65
190	4	1	1	2.64	15.61	12.81
191	4	1	1	-17.94	-0.29	-11.68
192	4	1	1	3.99	-18.25	-5.52
193	4	1	1	-7.1	20.25	-4.56
194	4	1	1	-9.65	18.96	-5.18
195	4	1	1	4.06	0.82	-19.4
196	4	1	1	10.19	15.65	7.38
197	4	1	1	-17.33	10.88	-7.78
198	4	1	1	3.17	3.77	20.16
199	4	1	1	-6.61	19.48	4.92
200	4	1	1	-9.38	18.78	1.83
201	4	1	1	-12.02	-4.51	14.79
202	4	1	1	-0.91	-12.08	-15.8
203	4	1	1	-3.37	13.83	15.2
204	4	1	1	4.5	17.71	8.07
205	4	1	1	-7.31	12.27	15.12
206	4	1	1	-16.64	12.87	-0.72
207	4	1	1	-14.59	14.68	2.35
208	4	1	1	-19.03	7.98	-5.99
209	4	1	1	-13.33	3.91	-16.16
210	4	1	1	9.07	18.7	-1.91
211	4	1	1	-9.27	10.46	-17.12
212	4	1	1	-11.47	17.49	-5.64
213	4	1	1	2.94	21.28	-4.44
214	4	1	1	-15.93	8.73	8.83
215	4	1	1	10.39	5.51	-15.89
216	4	1	1	2.75	-10.39	-16.0
217	4	1	1	5.58	1.75	19.71
218	4	1	1	-19.57	-3.39	-3.2
219	4	1	1	12.0	7.72	14.45
220	4	1	1	-3.73	2.93	20.73
221	4	1	1	-1.65	-2.77	-20.21
222	4	1	1	-11.55	11.15	13.51
223	4	1	1	-20.33	1.35	-5.8
224	4	1	1	-2.87	-2.37	-20.35
225	4	1	1	-3.34	12.68	15.95
226	4	1	1	-10.07	-3.24	-17.99
227	4	1	1	-10.3	17.63	-6.84
228	4	1	1	-12.24	17.14	-3.46
229	4	1	1	-11.65	-2.37	15.87
230	4	1	1	-11.25	6.28	-17.06
231	4	1	1	-18.22	-5.63	-4.96
232	4	1	1	-15.16	-2.63	-13.96
233	4	1	1	6.17	3.06	-18.69
234	4	1	1	-12.04	17.0	-1.02
235	4	1	1	-10.12	18.07	0.32
236	4	1	1	5.78	-16.66	11.1
237	4	1	1	-13.76	1.95	-15.94
238	4	1	1	-12.33	8.09	-16.31
239	4	1	1	-0.28	21.13	-5.98
240	4	1	1	-0.34	21.71	-2.45
241	4	1	1	-10.7	16.95	6.6
242	4	1	1	-8.79	14.83	12.23
243	4	1	1	-4.62	-16.82	-9.96
244	4	1	1	-1.28	-4.53	20.91
245	4	1	1	4.8	9.27	18.02
246	4	1	1	7.52	2.17	19.17
247	4	1	1	-11.92	15.32	7.57
248	4	1	1	-6.94	-3.91	18.55
249	4	1	1	-1.7	-18.42	8.95
250	4	1	1	-2.57	9.04	18.69
251	4	1	1	2.75	12.91	16.16
252	4	1	1	-8.67	12.38	14.64
253	4	1	1	-3.25	6.21	20.18
254	4	1	1	-11.19	1.5	16.37
255	4	1	1	0.54	13.8	16.43
256	4	1	1	-19.2	-3.37	-2.12
257	4	1	1	-9.8	-9.98	11.57
258	4	1	1	-1.32	6.61	19.98
259	4	1	1	-10.4	6.4	16.43
260	4	1	1	-11.21	16.24	7.16
261	4	1	1	5.76	-16.73	-10.52
262	4	1	1	-8.04	3.53	18.91
263	4	1	1	-14.96	7.55	11.5
264	4	1	1	-14.99	11.9	5.69
265	4	1	1	-3.37	-4.09	20.0
266	4	1	1	3.19	11.11	17.91
267	4	1	1	2.17	12.76	17.02
268	4	1	1	-7.01	-6.17	18.16
269	4	1	1	13.24	13.42	5.73
270	4	1	1	-5.11	17.29	9.66
271	4	1	1	-19.1	4.18	1.61
272	4	1	1	-7.65	-10.59	14.81
273	4	1	1	-13.74	8.44	13.03
274	4	1	1	-16.07	2.39	10.93
275	4	1	1	2.91	17.46	9.57
276	4	1	1	3.42	12.24	17.02
277	4	1	1	-9.9	4.41	17.07
278	4	1	1	-2.14	-14.9	13.93
279	4	1	1	-8.47	19.08	5.93
280	4	1	1	-18.1	9.26	-8.85
281	4	1	1	8.59	9.39	-16.65
282	4	1	1	10.84	6.53	15.97
283	4	1	1	-15.41	9.01	10.09
284	4	1	1	-17.18	7.96	7.85
285	4	1	1	-19.21	1.92	2.93
286	4	1	1	-19.66	8.22	-3.67
287	4	1	1	-13.38	2.76	14.77
288	4	1	1	8.09	-18.78	4.27
289	4	1	1	0.7	15.01	14.39
290	4	1	1	-4.78	-12.06	16.1
291	4	1	1	-3.92	-15.48	-12.47
292	4	1	1	-0.75	10.65	18.39
293	4	1	1	-13.49	-12.25	4.94
294	4	1	1	-7.51	6.4	18.04
295	4	1	1	3.82	14.38	14.54
296	4	1	1	-5.09	13.04	15.24
297	4	1	1	-19.43	5.95	0.43
298	4	1	1	-9.36	0.99	17.74
299	4	1	1	-15.0	10.62	8.49
300	4	1	1	1.15	-2.14	20.62
301	4	1	1	-11.49	-9.47	10.55
302	4	1	1	0.58	1.01	20.95
303	4	1	1	-12.49	-12.82	5.96
304	4	1	1	-15.65	-3.59	8.95
305	4	1	1	5.45	19.09	4.92
306	4	1	1	-16.62	6.59	9.33
307	4	1	1	12.06	11.17	-11.67
308	4	1	1	13.96	11.93	8.67
309	4	1	1	10.7	0.04	-14.69
310	4	1	1	9.66	-9.66	16.0
311	4	1	1	9.03	12.99	13.66
312	4	1	1	12.14	-11.73	12.99
313	4	1	1	-0.2	4.9	20.61
314	4	1	1	8.53	14.96	-12.87
315	4	1	1	8.4	18.38	-8.7
316	4	1	1	11.04	-17.05	-0.83
317	4	1	1	6.4	20.4	0.15
318	4	1	1	8.54	3.86	-17.4
319	4	1	1	11.99	2.09	16.56
320	4	1	1	-0.1	-17.99	10.26
321	4	1	1	9.62	-17.82	0.43
322	4	1	1	9.86	13.05	13.0
323	4	1	1	-5.8	-18.5	2.91
324	4	1	1	13.12	11.18	-10.14
325	4	1	1	-3.39	16.3	11.67
326	4	1	1	8.72	-16.7	-7.53
327	4	1	1	9.4	-4.02	18.23
328	4	1	1	0.66	17.18	10.32
329	4	1	1	8.56	-11.56	15.86
330	4	1	1	0.09	19.79	-12.07
331	4	1	1	-0.4	20.94	-7.88
332	4	1	1	4.67	-7.57	20.24
333	4	1	1	-0.13	-10.83	-16.54
334	4	1	1	13.18	8.75	12.62
335	4	1	1	10.85	7.54	-14.99
336	4	1	1	13.16	-12.17	12.04
337	4	1	1	2.77	-4.53	-18.46
338	4	1	1	12.41	12.21	-10.8
339	4	1	1	2.5	6.38	-20.35
340	4	1	1	6.82	16.8	-13.14
341	4	1	1	11.24	16.51	2.26
342	4	1	1	9.94	16.22	6.27
343	4	1	1	12.64	15.76	-4.5
344	4	1	1	-5.18	20.78	-1.0
345	4	1	1	13.36	13.26	-7.62
346	4	1	1	-11.41	0.27	-17.96
347	4	1	1	1.82	20.23	3.12
348	4	1	1	12.78	15.07	-5.77
349	4	1	1	1.42	-9.05	20.0
350	4	1	1	-2.46	21.64	-1.43
351	4	1	1	-15.53	7.93	10.76
352	4	1	1	-4.32	-7.24	-18.48
353	4	1	1	-12.27	10.21	-15.16
354	4	1	1	13.34	9.73	12.03
355	4	1	1	9.32	8.38	-16.4
356	4	1	1	7.94	19.45	-2.21
357	4	1	1	0.48	11.24	18.29
358	4	1	1	-10.34	17.94	5.58
359	4	1	1	0.68	21.46	-3.53
360	4	1	1	11.7	16.53	-3.86
361	4	1	1	-12.72	15.07	7.11
362	4	1	1	6.05	19.81	-7.12
363	4	1	1	8.01	19.36	-4.97
364	4	1	1	4.67	18.88	-12.26
365	4	1	1	4.49	19.13	5.44
366	4	1	1	11.07	13.88	-11.0
367	4	1	1	7.94	10.24	-17.24
368	4	1	1	-2.03	20.48	-10.25
369	4	1	1	-13.46	-1.08	14.94
370	4	1	1	10.91	14.82	-10.08
371	4	1	1	12.69	9.35	-12.06
372	4	1	1	-17.77	-5.21	1.86
373	4	1	1	-20.24	3.93	-3.99
374	4	1	1	-2.9	14.46	14.76
375	4	1	1	3.48	15.82	-16.68
376	4	1	1	7.28	5.51	-18.38
377	4	1	1	-5.38	1.18	-20.73
378	4	1	1	11.47	8.4	-14.21
379	4	1	1	-19.44	1.79	-9.06
380	4	1	1	9.43	15.31	-11.32
381	4	1	1	-5.6	7.86	18.34
382	4	1	1	3.57	17.79	-14.29
383	4	1	1	-4.19	9.69	17.65
384	4	1	1	-1.96	17.81	8.98
385	4	1	1	-18.68	4.74	-9.1
386	4	1	1	14.34	12.91	-5.49
387	4	1	1	1.98	21.26	-4.95
388	4	1	1	-2.04	-7.68	-18.47
389	4	1	1	-11.18	1.66	-18.27
390	4	1	1	-14.57	10.41	9.54
391	4	1	1	-2.98	21.42	-2.65
392	4	1	1	10.9	16.91	1.28
393	4	1	1	-10.61	17.38	-7.78
394	4	1	1	-4.27	19.63	-10.77
395	4	1	1	-14.68	-2.02	-14.6
396	4	1	1	-20.23	4.36	-1.93
397	4	1	1	2.34	0.97	-20.1
398	4	1	1	1.71	19.12	-13.56
399	4	1	1	-12.98	16.26	-5.34
400	4	1	1	-11.27	-12.69	-11.77
401	4	1	1	-6.81	20.16	-2.13
402	4	1	1	-1.61	21.84	-2.24
403	4	1	1	-14.84	14.17	-6.39
404	4	1	1	-17.45	6.15	-10.52
405	4	1	1	1.1	10.46	-19.8
406	4	1	1	12.32	16.13	-3.35
407	4	1	1	-2.69	16.18	-14.98
408	4	1	1	-19.76	6.28	-6.22
409	4	1	1	0.3	19.84	5.39
410	4	1	1	13.3	14.96	-2.63
411	4	1	1	7.08	19.84	-5.22
412	4	1	1	10.13	17.57	-5.04
413	4	1	1	1.95	21.18	-3.73
414	4	1	1	11.46	16.55	0.12
415	4	1	1	-3.05	20.71	1.99
416	4	1	1	-11.47	17.68	-4.28
417	4	1	1	-11.18	14.87	-11.69
418	4	1	1	-4.7	20.02	-8.06
419	4	1	1	-11.12	2.45	16.76
420	4	1	1	10.22	17.1	2.67
421	4	1	1	12.13	15.01	-7.97
422	4	1	1	-0.07	1.73	-21.31
423	4	1	1	-8.47	6.89	17.7
424	4	1	1	12.15	13.76	9.43
425	4	1	1	0.65	21.34	-2.14
426	4	1	1	-5.39	13.93	14.43
427	4	1	1	-13.13	1.24	15.13
428	4	1	1	-5.21	20.44	-6.74
429	4	1	1	12.8	-3.11	15.44
430	4	1	1	-2.02	15.27	14.13
431	4	1	1	-0.2	18.73	7.34
432	4	1	1	-1.15	-17.25	10.92
433	4	1	1	4.93	-11.8	17.64
434	4	1	1	-6.63	10.34	16.28
435	4	1	1	-7.54	17.15	9.57
436	4	1	1	-1.97	-6.66	20.56
437	4	1	1	-9.37	8.64	16.44
438	4	1	1	4.12	11.27	17.29
439	4	1	1	-8.28	17.43	8.75
440	4	1	1	-6.63	15.96	11.42
441	4	1	1	9.54	3.48	18.35
442	4	1	1	-9.54	1.04	-19.24
443	4	1	1	13.07	-3.77	14.93
444	4	1	1	-14.19	12.43	-10.34
445	4	1	1	-9.74	16.24	9.53
446	4	1	1	-7.8	13.85	13.77
447	4	1	1	-8.96	7.92	17.02
448	4	1	1	-14.05	13.8	4.74
449	4	1	1	-8.58	-10.24	13.1
450	4	1	1	-10.92	-4.37	15.94
451	4	1	1	-2.49	-15.64	13.15
452	4	1	1	-1.37	18.27	7.85
453	4	1	1	10.4	3.71	17.35
454	4	1	1	3.53	-6.89	20.72
455	4	1	1	-8.62	-12.75	10.64
456	4	1	1	-19.79	5.32	-1.43
457	4	1	1	-0.04	9.96	18.76
458	4	1	1	-8.55	-4.85	17.65
459	4	1	1	-13.28	14.11	7.13
460	4	1	1	-12.08	15.7	6.63
461	4	1	1	-12.53	-3.36	15.15
462	4	1	1	-7.91	12.87	14.46
463	4	1	1	-5.43	18.43	7.91
464	4	1	1	-11.31	-5.87	14.57
465	4	1	1	7.33	-4.6	19.22
466	4	1	1	-18.54	-3.93	0.18
467	4	1	1	1.64	20.94	-8.16
468	4	1	1	-9.46	11.46	14.78
469	4	1	1	4.35	-0.12	20.0
470	4	1	1	-12.46	-6.94	12.73
471	4	1	1	-12.21	4.51	15.98
472	4	1	1	-6.49	11.37	15.88
473	4	1	1	-7.08	17.87	8.68
474	4	1	1	5.0	16.55	9.92
475	4	1	1	4.74	-5.08	20.67
476	4	1	1	-5.08	20.87	-3.3
477	4	1	1	-7.56	10.26	16.13
478	4	1	1	8.14	7.37	18.15
479	4	1	1	2.31	5.12	20.33
480	4	1	1	13.47	7.79	13.0
481	4	1	1	-15.09	5.07	-14.87
482	4	1	1	-13.62	-9.45	8.66
483	4	1	1	7.89	9.73	16.81
484	4	1	1	-7.25	19.51	3.95
485	4	1	1	-18.79	-3.03	0.93
486	4	1	1	13.68	-13.29	10.13
487	4	1	1	-12.75	8.6	14.0
488	4	1	1	-13.17	11.17	-13.43
489	4	1	1	8.52	11.53	15.28
490	4	1	1	3.08	21.19	-0.14
491	4	1	1	-14.41	-6.21	10.16
492	4	1	1	7.8	11.02	16.25
493	4	1	1	0.9	8.35	-20.1
494	4	1	1	12.29	11.72	11.55
495	4	1	1	10.15	3.38	-15.78
496	4	1	1	2.16	11.13	18.27
497	4	1	1	3.05	21.17	-3.4
498	4	1	1	4.0	-18.32	8.98
499	4	1	1	-3.49	9.5	18.2
500	4	1	1	11.37	-16.79	5.13
501	4	1	1	11.01	-17.57	2.81
502	4	1	1	-9.76	-15.12	6.4
503	4	1	1	-13.05	9.7	13.49
504	4	1	1	4.94	-18.25	-5.08
505	4	1	1	10.23	-16.15	-5.73
506	4	1	1	7.27	-15.95	11.34
507	4	1	1	13.21	-11.06	12.47
508	4	1	1	4.78	-1.49	20.12
509	4	1	1	12.29	-4.01	15.86
510	4	1	1	7.75	15.88	10.34
511	4	1	1	10.38	-16.94	5.83
512	4	1	1	5.91	-18.89	5.6
513	4	1	1	-4.61	0.06	19.97
514	4	1	1	3.74	-17.18	11.9
515	4	1	1	6.54	-18.3	-3.15
516	4	1	1	15.13	-11.06	10.6
517	4	1	1	12.52	9.51	12.86
518	4	1	1	3.95	-18.45	-4.33
519	4	1	1	9.29	-17.3	-2.49
520	4	1	1	-2.39	-19.83	3.96
521	4	1	1	-5.14	19.44	-10.35
522	4	1	1	-1.06	-12.84	17.23
523	4	1	1	-7.66	5.15	18.56
524	4	1	1	9.07	7.57	17.47
525	4	1	1	11.73	-17.03	2.9
526	4	1	1	10.83	-15.94	8.63
527	4	1	1	2.23	-13.62	15.93
528	4	1	1	-0.13	-14.79	14.89
529	4	1	1	0.61	-5.49	21.09
530	4	1	1	4.93	6.28	19.11
531	4	1	1	8.9	-17.41	-5.04
532	4	1	1	-5.05	-4.01	19.44
533	4	1	1	5.92	0.65	19.79
534	4	1	1	7.26	19.83	0.77
535	4	1	1	-10.14	-12.37	8.54
536	4	1	1	0.92	-14.87	15.18
537	4	1	1	8.12	-4.36	18.57
538	4	1	1	-0.31	17.03	10.18
539	4	1	1	8.54	-18.34	2.49
540	4	1	1	-8.3	-17.28	-5.36
541	4	1	1	-17.71	9.76	2.44
542	4	1	1	-15.97	-10.63	1.61
543	4	1	1	-2.97	-19.88	1.48
544	4	1	1	-13.2	-14.39	-1.92
545	4	1	1	-17.57	2.91	8.03
546	4	1	1	-13.47	15.97	-0.39
547	4	1	1	8.88	-18.25	1.54
548	4	1	1	-12.67	-7.91	11.29
549	4	1	1	-9.71	15.35	10.1
550	4	1	1	-19.92	3.08	-0.08
551	4	1	1	-16.09	-10.13	0.79
552	4	1	1	-0.91	19.33	-12.66
553	4	1	1	-3.4	21.13	-1.58
554	4	1	1	-9.92	12.83	12.98
555	4	1	1	-7.3	11.37	15.53
556	4	1	1	-18.46	-5.14	-7.08
557	4	1	1	-18.77	8.95	-0.06
558	4	1	1	-13.96	-9.78	7.79
559	4	1	1	-9.86	18.87	-3.2
560	4	1	1	-0.2	20.55	-10.03
561	4	1	1	-13.76	-4.56	13.0
562	4	1	1	-12.04	1.06	15.89
563	4	1	1	-12.92	0.09	-16.52
564	4	1	1	-8.55	-6.08	17.28
565	4	1	1	-9.12	17.77	7.79
566	4	1	1	-18.72	6.1	2.36
567	4	1	1	-20.23	6.03	-3.3
568	4	1	1	5.16	-5.88	20.43
569	4	1	1	2.73	-2.24	-18.9
570	4	1	1	-17.05	-1.66	6.61
571	4	1	1	-9.36	-0.42	17.25
572	4	1	1	-17.82	-4.89	2.67
573	4	1	1	-16.53	6.3	-12.69
574	4	1	1	-17.57	-5.8	2.98
575	4	1	1	-8.42	-16.6	5.67
576	4	1	1	-18.98	-1.67	-8.59
577	4	1	1	-16.95	10.15	5.12
578	4	1	1	-5.26	-14.74	-13.39
579	4	1	1	-12.49	-14.95	1.33
580	4	1	1	-7.3	-9.79	-15.91
581	4	1	1	-2.66	-17.63	9.43
582	4	1	1	9.63	15.14	10.42
583	4	1	1	-15.04	-10.57	3.0
584	4	1	1	-18.37	-3.89	2.57
585	4	1	1	10.27	8.01	-15.87
586	4	1	1	2.53	-19.67	1.04
587	4	1	1	-14.59	6.76	-14.7
588	4	1	1	-10.13	0.32	17.07
589	4	1	1	-7.88	8.89	17.19
590	4	1	1	-14.39	-10.81	6.03
591	4	1	1	0.34	-3.45	21.08
592	4	1	1	-17.84	8.65	-9.56
593	4	1	1	-8.67	-17.59	-3.09
594	4	1	1	-1.31	5.46	20.33
595	4	1	1	-5.6	-16.73	8.66
596	4	1	1	-5.77	-13.27	12.87
597	4	1	1	-4.77	-16.79	9.5
598	4	1	1	14.26	1.21	14.02
599	4	1	1	-19.44	2.97	1.66
600	4	1	1	2.72	11.99	17.67
601	4	1	1	-17.16	-9.07	-2.51
602	4	1	1	-17.6	-7.7	-6.05
603	4	1	1	-8.55	-10.08	14.27
604	4	1	1	5.08	-19.04	-2.17
605	4	1	1	-9.33	-14.76	-11.08
606	4	1	1	-6.28	-3.56	-19.54
607	4	1	1	10.19	-14.78	-9.79
608	4	1	1	-16.83	5.4	-12.45
609	4	1	1	-6.27	-12.81	13.6
610	4	1	1	-18.57	-2.08	3.67
611	4	1	1	-15.65	-11.77	-3.22
612	4	1	1	-18.17	10.97	-3.43
613	4	1	1	-10.24	-3.93	16.31
614	4	1	1	-11.49	17.49	3.06
615	4	1	1	4.75	0.97	20.01
616	4	1	1	7.38	16.88	8.54
617	4	1	1	-5.97	19.21	-9.79
618	4	1	1	8.75	4.95	-17.07
619	4	1	1	1.85	12.82	-18.52
620	4	1	1	11.68	16.39	-2.54
621	4	1	1	11.12	4.29	16.63
622	4	1	1	8.7	19.34	-2.77
623	4	1	1	11.68	-17.12	3.97
624	4	1	1	14.03	13.32	-4.51
625	4	1	1	5.72	-4.21	20.33
626	4	1	1	2.15	21.29	-1.42
627	4	1	1	1.95	19.81	4.08
628	4	1	1	8.09	-14.05	13.45
629	4	1	1	11.93	-16.13	-0.8
630	4	1	1	1.39	13.74	-18.36
631	4	1	1	10.81	17.77	-3.36
632	4	1	1	-1.57	20.78	-8.35
633	4	1	1	4.13	20.05	3.26
634	4	1	1	-4.0	19.97	-9.83
635	4	1	1	2.59	21.22	-2.43
636	4	1	1	-4.45	17.82	-12.77
637	4	1	1	-15.59	-9.59	-9.52
638	4	1	1	11.67	10.1	13.24
639	4	1	1	5.27	19.44	3.96
640	4	1	1	-3.79	20.99	-0.09
641	4	1	1	-7.51	0.72	-19.94
642	4	1	1	-2.76	-5.03	20.6
643	4	1	1	0.46	4.1	20.83
644	4	1	1	13.63	-14.44	8.13
645	4	1	1	-0.29	16.8	-15.36
646	4	1	1	8.31	17.96	3.78
647	4	1	1	-3.04	15.25	13.81
648	4	1	1	-7.82	18.19	7.57
649	4	1	1	9.74	-5.59	-15.01
650	4	1	1	8.44	4.56	18.24
651	4	1	1	9.43	17.31	-8.86
652	4	1	1	0.14	-14.21	15.61
653	4	1	1	9.17	13.11	-13.82
654	4	1	1	0.91	20.27	2.0
655	4	1	1	3.17	10.04	18.39
656	4	1	1	7.22	19.45	-7.4
657	4	1	1	-1.15	20.47	2.35
658	4	1	1	9.84	18.04	-3.83
659	4	1	1	-8.98	15.21	11.22
660	4	1	1	-2.7	10.05	-19.56
661	4	1	1	7.47	17.51	-11.37
662	4	1	1	8.36	16.95	-10.69
663	4	1	1	-1.44	18.39	-14.06
664	4	1	1	-9.1	13.97	-14.21
665	4	1	1	12.85	10.93	-11.04
666	4	1	1	-9.38	18.83	3.5
667	4	1	1	4.23	16.27	11.06
668	4	1	1	4.13	20.59	-7.44
669	4	1	1	-5.38	15.15	12.59
670	4	1	1	-11.55	14.31	9.75
671	4	1	1	12.39	14.14	7.54
672	4	1	1	-1.66	20.24	4.5
673	4	1	1	5.86	8.85	17.88
674	4	1	1	-1.8	4.56	20.67
675	4	1	1	7.38	17.64	6.95
676	4	1	1	-12.07	7.11	14.97
677	4	1	1	-20.33	3.96	-2.69
678	4	1	1	10.99	1.24	17.26
679	4	1	1	6.88	2.02	-18.3
680	4	1	1	-17.14	6.92	8.3
681	4	1	1	9.64	5.28	17.51
682	4	1	1	10.18	-7.42	16.68
683	4	1	1	-4.64	-18.99	3.28
684	4	1	1	12.59	14.18	-7.25
685	4	1	1	-11.19	17.61	0.87
686	4	1	1	13.96	13.99	-1.49
687	4	1	1	-10.8	15.19	9.33
688	4	1	1	-6.94	9.65	-18.15
689	4	1	1	-5.33	20.68	-4.51
690	4	1	1	-0.81	21.33	-0.03
691	4	1	1	6.62	15.99	10.71
692	4	1	1	6.24	18.05	6.82
693	4	1	1	-0.47	16.41	12.09
694	4	1	1	-2.61	20.28	3.61
695	4	1	1	-13.65	14.92	-7.86
696	4	1	1	-14.77	-11.69	2.73
697	4	1	1	2.04	2.58	20.68
698	4	1	1	0.88	12.94	16.87
699	4	1	1	-4.41	20.17	2.92
700	4	1	1	-8.61	1.48	-19.75
701	4	1	1	9.67	9.22	-15.6
702	4	1	1	8.01	6.45	-18.1
703	4	1	1	11.33	16.16	-7.75
704	4	1	1	-11.42	5.44	16.27
705	4	1	1	0.57	15.61	13.5
706	4	1	1	-6.32	12.27	15.36
707	4	1	1	-10.5	14.89	10.28
708	4	1	1	-15.58	-7.94	6.33
709	4	1	1	-18.54	8.06	-8.44
710	4	1	1	3.61	-12.09	17.55
711	4	1	1	4.92	13.06	15.47
712	4	1	1	-20.1	2.99	-2.33
713	4	1	1	-0.52	11.33	17.47
714	4	1	1	12.76	15.53	-1.15
715	4	1	1	9.89	13.69	12.18
716	4	1	1	-9.41	12.44	14.02
717	4	1	1	-13.59	9.42	12.6
718	4	1	1	9.2	14.73	11.74
719	4	1	1	-4.48	19.48	4.99
720	4	1	1	10.82	7.86	15.33
721	4	1	1	13.48	12.64	8.7
722	4	1	1	-13.84	15.71	-3.34
723	4	1	1	-10.25	-15.82	2.96
724	4	1	1	-18.11	3.91	6.07
725	4	1	1	-9.27	17.03	-10.25
726	4	1	1	-3.54	7.02	19.62
727	4	1	1	3.79	15.05	13.25
728	4	1	1	-9.18	-15.21	7.12
729	4	1	1	-5.78	20.36	0.9
730	4	1	1	2.16	20.06	-11.54
731	4	1	1	11.32	15.39	-8.38
732	4	1	1	-15.64	-4.75	8.15
733	4	1	1	2.59	-4.01	21.04
734	4	1	1	2.9	9.12	18.96
735	4	1	1	-3.43	-6.49	19.91
736	4	1	1	13.62	-12.59	10.99
737	4	1	1	-2.72	-9.49	19.32
738	4	1	1	8.71	-12.36	15.22
739	4	1	1	11.5	12.55	11.26
740	4	1	1	-1.82	-10.64	-16.96
741	4	1	1	1.05	-1.15	20.76
742	4	1	1	2.36	-10.73	18.66
743	4	1	1	-5.42	-19.05	0.95
744	4	1	1	-17.93	-6.36	-5.64
745	4	1	1	-6.63	-18.13	3.37
746	4	1	1	-2.91	-10.4	18.56
747	4	1	1	15.06	-6.8	12.5
748	4	1	1	-16.89	-9.17	-1.46
749	4	1	1	-17.42	-8.31	-1.25
750	4	1	1	-17.8	7.37	7.2
751	4	1	1	-11.14	-9.41	-14.3
752	4	1	1	-5.41	-18.3	5.31
753	4	1	1	-6.57	-16.73	8.03
754	4	1	1	11.34	3.19	16.8
755	4	1	1	1.23	-15.97	13.84
756	4	1	1	-18.33	9.11	-6.52
757	4	1	1	-3.94	-7.51	19.49
758	4	1	1	1.85	-0.55	20.66
759	4	1	1	-11.02	17.53	4.31
760	4	1	1	-10.8	3.84	-18.08
761	4	1	1	7.23	-16.87	9.28
762	4	1	1	6.68	-2.68	19.5
763	4	1	1	-3.09	-19.01	5.8
764	4	1	1	4.19	-18.82	7.61
765	4	1	1	-1.54	-19.98	2.93
766	4	1	1	1.21	-17.93	-8.84
767	4	1	1	-12.88	0.17	15.52
768	4	1	1	-17.87	-7.22	-3.24
769	4	1	1	-5.3	-7.96	18.95
770	4	1	1	4.56	-9.01	19.13
771	4	1	1	-15.08	-7.68	7.28
772	4	1	1	-5.02	-18.11	7.05
773	4	1	1	0.66	-10.78	18.7
774	4	1	1	3.75	-19.51	3.77
775	4	1	1	-14.97	-1.09	-13.95
776	4	1	1	3.76	-15.2	14.05
777	4	1	1	-7.72	-10.91	13.64
778	4	1	1	-15.96	12.06	2.96
779	4	1	1	-9.49	6.93	16.97
780	4	1	1	-4.15	-14.74	-13.34
781	4	1	1	-15.88	-11.16	-0.42
782	4	1	1	-6.58	-16.05	8.9
783	4	1	1	1.23	0.33	20.83
784	4	1	1	10.72	-11.0	14.69
785	4	1	1	-17.95	-7.2	-1.05
786	4	1	1	-4.66	-13.31	14.51
787	4	1	1	-20.28	-1.61	-5.45
788	4	1	1	-7.96	-3.53	17.69
789	4	1	1	-0.49	6.08	20.51
790	4	1	1	13.43	-13.53	-4.67
791	4	1	1	6.28	-16.24	11.84
792	4	1	1	-8.3	-12.07	11.3
793	4	1	1	-4.98	-18.51	4.37
794	4	1	1	-0.32	-18.87	-4.34
795	4	1	1	-8.0	-8.03	16.94
796	4	1	1	1.05	10.28	18.72
797	4	1	1	8.66	-18.32	0.29
798	4	1	1	-13.05	-14.74	-0.69
799	4	1	1	-12.8	-11.51	7.57
800	4	1	1	-3.52	-16.93	-9.96
801	4	1	1	1.8	-17.19	12.13
802	4	1	1	6.67	4.53	-18.58
803	4	1	1	-12.53	3.45	15.45
804	4	1	1	7.62	15.18	-13.59
805	4	1	1	14.39	-14.6	5.81
806	4	1	1	13.13	11.59	10.86
807	4	1	1	-5.73	17.69	8.73
808	4	1	1	-2.06	-0.22	20.65
809	4	1	1	3.06	-0.12	20.36
810	4	1	1	0.02	-8.98	20.3
811	4	1	1	9.42	-15.21	11.94
812	4	1	1	11.66	-11.25	13.9
813	4	1	1	15.05	11.14	8.52
814	4	1	1	10.15	7.85	16.12
815	4	1	1	-6.32	-8.3	18.28
816	4	1	1	11.83	-7.0	-13.18
817	4	1	1	-5.92	-17.46	7.43
818	4	1	1	11.06	17.01	-0.85
819	4	1	1	9.48	4.25	17.73
820	4	1	1	12.0	-15.04	-3.74
821	4	1	1	8.46	1.36	18.82
822	4	1	1	0.58	-12.58	-14.83
823	4	1	1	13.95	8.52	12.19
824	4	1	1	3.63	18.23	7.42
825	4	1	1	1.51	19.51	-12.64
826	4	1	1	-14.73	-12.08	-6.64
827	4	1	1	10.38	9.16	14.73
828	4	1	1	4.76	-3.81	20.69
829	4	1	1	3.85	13.43	15.41
830	4	1	1	2.68	20.86	-6.18
831	4	1	1	0.77	14.3	15.45
832	4	1	1	10.96	-4.14	-14.15
833	4	1	1	6.07	-14.14	-12.78
834	4	1	1	11.27	-14.14	-9.63
835	4	1	1	12.36	-13.28	-7.7
836	4	1	1	2.72	-19.46	3.26
837	4	1	1	11.41	2.31	-14.27
838	4	1	1	8.95	-11.5	-13.17
839	4	1	1	10.66	10.0	14.12
840	4	1	1	8.68	-14.69	12.62
841	4	1	1	-4.01	-18.69	5.47
842	4	1	1	-4.6	-12.42	-15.45
843	4	1	1	-2.26	-19.76	0.48
844	4	1	1	12.59	-15.89	6.66
845	4	1	1	-3.58	-1.91	20.05
846	4	1	1	6.15	-18.64	-2.27
847	4	1	1	-10.63	17.98	-5.94
848	4	1	1	6.17	13.33	14.71
849	4	1	1	1.86	-5.48	21.03
850	4	1	1	-11.37	-7.62	12.85
851	4	1	1	-18.74	-4.22	-6.52
852	4	1	1	12.72	14.4	3.02
853	4	1	1	9.63	-3.07	18.15
854	4	1	1	-6.03	19.63	-8.79
855	4	1	1	-1.67	7.62	19.81
856	4	1	1	-9.77	18.01	6.75
857	4	1	1	5.25	-10.78	18.26
858	4	1	1	4.78	15.69	11.75
859	4	1	1	-19.23	6.02	3.36
860	4	1	1	-1.92	14.1	15.28
861	4	1	1	2.17	19.12	6.22
862	4	1	1	6.05	-5.23	20.24
863	4	1	1	13.64	3.29	14.29
864	4	1	1	-16.29	13.22	0.25
865	4	1	1	7.63	-2.25	19.14
866	4	1	1	-7.92	-5.76	18.03
867	4	1	1	4.47	21.11	-1.96
868	4	1	1	-6.32	20.37	-5.16
869	4	1	1	-11.04	15.86	8.42
870	4	1	1	-16.43	9.89	-10.28
871	4	1	1	-7.12	19.6	-6.96
872	4	1	1	0.44	18.19	8.32
873	4	1	1	-11.55	16.38	6.1
874	4	1	1	-15.94	8.2	9.77
875	4	1	1	12.46	-10.0	13.96
876	4	1	1	9.39	14.49	-12.13
877	4	1	1	2.15	10.1	18.82
878	4	1	1	-18.75	9.27	-4.15
879	4	1	1	-13.06	3.82	14.69
880	4	1	1	-17.73	11.16	-0.57
881	4	1	1	5.0	8.09	18.48
882	4	1	1	10.02	16.26	-9.23
883	4	1	1	-3.18	-8.52	19.64
884	4	1	1	-16.32	11.02	5.25
885	4	1	1	10.64	12.96	11.8
886	4	1	1	6.17	-0.88	19.85
887	4	1	1	8.79	-18.18	-0.62
888	4	1	1	2.85	20.8	-7.3
889	4	1	1	5.61	17.46	7.71
890	4	1	1	8.67	15.67	10.2
891	4	1	1	-15.63	5.48	10.97
892	4	1	1	-15.99	-2.69	8.56
893	4	1	1	-4.41	19.03	7.04
894	4	1	1	-1.19	20.36	3.47
895	4	1	1	3.89	15.58	12.1
896	4	1	1	8.48	19.16	-1.24
897	4	1	1	-17.64	10.33	3.48
898	4	1	1	1.79	15.14	14.03
899	4	1	1	-14.44	-4.0	12.12
900	4	1	1	-14.45	6.43	13.0
901	4	1	1	0.9	21.23	-1.22
902	4	1	1	-16.36	-8.7	2.15
903	4	1	1	2.97	-4.98	20.97
904	4	1	1	-16.83	-3.95	5.77
905	4	1	1	-9.23	-11.05	11.34
906	4	1	1	-2.83	11.32	17.36
907	4	1	1	3.14	-13.26	16.82
908	4	1	1	0.7	-11.89	18.09
909	4	1	1	-7.17	-11.46	14.23
910	4	1	1	0.68	5.58	20.52
911	4	1	1	-3.04	4.19	21.04
912	4	1	1	-17.47	6.5	7.6
913	4	1	1	-14.14	0.37	-15.66
914	4	1	1	-1.05	-10.86	18.8
915	4	1	1	13.11	14.52	-0.29
916	4	1	1	15.42	-12.59	6.28
917	4	1	1	0.52	-9.6	19.48
918	4	1	1	-0.84	20.17	5.29
919	4	1	1	-0.89	13.99	15.86
920	4	1	1	-17.13	2.11	8.95
921	4	1	1	-14.52	-12.99	-0.33
922	4	1	1	-3.13	-15.1	-13.31
923	4	1	1	-9.95	2.58	17.6
924	4	1	1	2.02	-19.64	2.47
925	4	1	1	-9.92	-7.26	15.11
926	4	1	1	-9.02	3.09	18.39
927	4	1	1	-5.3	5.29	19.59
928	4	1	1	-14.28	2.25	13.53
929	4	1	1	6.42	-9.27	18.31
930	4	1	1	9.13	-17.71	-1.59
931	4	1	1	-9.23	2.64	-19.32
932	4	1	1	-0.57	-18.59	9.32
933	4	1	1	-11.05	7.56	15.67
934	4	1	1	-0.81	-9.82	19.65
935	4	1	1	-9.27	-8.74	14.62
936	4	1	1	-12.48	4.34	-16.93
937	4	1	1	-5.55	-6.14	19.38
938	4	1	1	-2.6	-6.01	20.47
939	4	1	1	-16.41	-7.22	4.41
940	4	1	1	-10.28	16.96	7.62
941	4	1	1	-17.32	-3.04	5.34
942	4	1	1	4.23	-13.33	16.58
943	4	1	1	-11.67	-13.59	6.17
944	4	1	1	-19.07	0.96	3.52
945	4	1	1	-4.74	-2.0	19.93
946	4	1	1	-12.8	6.13	14.57
947	4	1	1	-10.43	10.94	14.4
948	4	1	1	-6.62	7.38	18.23
949	4	1	1	10.18	1.47	17.87
950	4	1	1	4.53	-6.53	20.57
951	4	1	1	-5.28	-13.49	13.64
952	4	1	1	-15.51	-9.1	5.29
953	4	1	1	4.11	1.79	19.83
954	4	1	1	-12.23	-5.85	14.37
955	4	1	1	-3.34	-17.07	10.23
956	4	1	1	-16.91	0.25	8.65
957	4	1	1	-17.84	-4.41	3.44
958	4	1	1	-9.12	18.41	5.76
959	4	1	1	-6.58	-18.32	1.39
960	4	1	1	-17.63	-4.47	-9.8
961	4	1	1	-12.36	-0.99	15.65
962	4	1	1	-2.95	1.8	20.96
963	4	1	1	-9.75	-9.23	13.89
964	4	1	1	-14.98	5.37	12.32
965	4	1	1	-11.28	-14.73	4.37
966	4	1	1	-14.76	-8.79	7.2
967	4	1	1	-16.44	4.77	10.43
968	4	1	1	-12.69	-6.13	13.39
969	4	1	1	-8.07	15.67	10.99
970	4	1	1	-14.71	11.62	8.05
971	4	1	1	-19.48	0.56	-9.01
972	4	1	1	2.72	13.87	15.62
973	4	1	1	-9.11	-8.09	15.36
974	4	1	1	-4.27	-4.7	19.72
975	4	1	1	4.71	-18.99	-3.37
976	4	1	1	-0.23	7.26	20.05
977	4	1	1	-9.35	10.0	15.6
978	4	1	1	-13.66	15.0	2.9
979	4	1	1	13.67	-14.01	9.24
980	4	1	1	-18.05	5.99	6.91
981	4	1	1	-7.59	19.77	-5.28
982	4	1	1	-12.18	-8.75	10.58
983	4	1	1	3.21	-19.01	-3.56
984	4	1	1	13.8	2.08	14.68
985	4	1	1	11.21	8.55	14.84
986	4	1	1	-0.77	9.09	19.25
987	4	1	1	-6.47	-5.54	18.87
988	4	1	1	11.87	15.77	2.1
989	4	1	1	2.98	20.33	2.54
990	4	1	1	5.8	14.15	14.24
991	4	1	1	3.99	12.79	16.06
992	4	1	1	10.52	-3.44	17.5
993	4	1	1	-7.1	3.18	19.44
994	4	1	1	1.42	17.96	8.17
995	4	1	1	-14.42	-8.68	8.49
996	4	1	1	2.52	-12.48	17.36
997	4	1	1	-8.8	13.3	13.61
998	4	1	1	6.74	-3.87	19.69
999	4	1	1	-1.62	11.73	17.17
1000	4	1	1	-5.92	-4.48	19.19
1001	4	1	1	-0.21	3.26	20.97
1002	4	1	1	15.59	-13.27	5.33
1003	4	1	1	-13.08	11.19	11.7
1004	4	1	1	6.57	-18.3	7.59
1005	4	1	1	-3.56	1.17	20.41
1006	4	1	1	-13.18	11.41	10.69
1007	4	1	1	-11.1	17.67	1.98
1008	4	1	1	1.1	20.71	1.06
1009	4	1	1	1.89	16.39	11.97
1010	4	1	1	2.17	15.76	-16.27
1011	4	1	1	9.67	-15.77	10.9
1012	4	1	1	-8.23	2.27	18.72
1013	4	1	1	7.16	-18.2	-4.03
1014	4	1	1	14.01	-15.12	3.8
1015	4	1	1	8.66	-3.5	18.6
1016	4	1	1	-10.59	11.68	13.49
1017	4	1	1	5.28	-18.39	8.03
1018	4	1	1	7.66	-9.86	17.73
1019	4	1	1	11.6	-3.41	16.83
1020	4	1	1	7.58	-6.96	18.52
1021	4	1	1	-9.23	3.84	17.95
1022	4	1	1	-14.88	-1.95	12.71
1023	4	1	1	5.93	-7.66	19.36
1024	4	1	1	-8.97	-15.69	6.16
1025	4	1	1	3.38	-9.33	19.37
1026	4	1	1	-11.57	-10.8	9.01
1027	4	1	1	12.81	15.21	1.25
1028	4	1	1	-12.09	5.71	15.58
1029	4	1	1	-3.36	15.86	12.64
1030	4	1	1	-7.04	13.46	14.57
1031	4	1	1	12.24	-15.66	7.86
1032	4	1	1	1.28	-16.68	12.96
1033	4	1	1	-12.41	10.46	13.25
1034	4	1	1	-4.25	5.52	19.95
1035	4	1	1	-19.49	3.64	0.58
1036	4	1	1	1.87	21.23	-0.37
1037	4	1	1	-3.53	21.13	-4.68
1038	4	1	1	-12.15	14.23	-11.57
1039	4	1	1	-15.23	14.17	1.56
1040	4	1	1	-6.88	20.02	-5.94
1041	4	1	1	8.71	18.7	-5.49
1042	4	1	1	-13.81	15.41	-5.81
1043	4	1	1	7.08	7.26	18.2
1044	4	1	1	1.43	12.02	17.8
1045	4	1	1	-0.49	14.47	-17.07
1046	4	1	1	-9.77	18.15	2.9
1047	4	1	1	-5.82	14.69	13.53
1048	4	1	1	13.37	14.01	2.06
1049	4	1	1	-19.92	4.68	-7.05
1050	4	1	1	-6.53	20.21	0.13
1051	4	1	1	14.39	-11.72	10.62
1052	4	1	1	-4.93	3.03	20.41
1053	4	1	1	-6.0	20.59	-2.8
1054	4	1	1	11.59	-7.07	15.78
1055	4	1	1	-4.82	14.77	13.92
1056	4	1	1	-6.3	19.08	7.15
1057	4	1	1	-11.87	17.23	0.09
1058	4	1	1	-6.66	17.11	9.58
1059	4	1	1	11.49	11.82	12.48
1060	4	1	1	-5.79	20.11	2.83
1061	4	1	1	9.67	8.75	15.49
1062	4	1	1	7.09	8.29	18.04
1063	4	1	1	-1.78	19.01	-12.93
1064	4	1	1	-13.2	10.16	-14.5
1065	4	1	1	7.23	15.28	11.39
1066	4	1	1	-11.32	17.34	5.42
1067	4	1	1	4.16	18.77	6.36
1068	4	1	1	-9.7	10.76	15.33
1069	4	1	1	-4.17	12.95	15.63
1070	4	1	1	-10.24	-5.23	16.16
1071	4	1	1	-0.46	18.22	8.18
1072	4	1	1	-16.04	8.46	-12.01
1073	4	1	1	-18.23	10.02	-5.62
1074	4	1	1	-16.5	2.53	10.0
1075	4	1	1	-16.41	-7.69	3.24
1076	4	1	1	-17.33	5.88	8.46
1077	4	1	1	-18.96	3.04	2.66
1078	4	1	1	-8.37	-1.16	17.99
1079	4	1	1	-12.09	9.53	13.8
1080	4	1	1	-6.77	15.4	-14.12