LAMMPS data file generated by tc387 with a python script for hex membrane

16974   atoms
0   bonds
16974   ellipsoids

4 atom types
0 bond types

-30.0 30.0 xlo xhi 
-30.0 30.0 ylo yhi 
-30.0 30.0 zlo zhi 

Atoms # ellipsoid

1	4	1	1	12.803035631652012	16.337130957889865	-0.5981582600647848
2	4	1	1	11.103035631652013	12.507130957889865	10.271841739935214
3	4	1	1	9.063035631652014	17.527130957889867	1.451841739935215
4	4	1	1	9.033035631652012	16.597130957889867	4.811841739935216
5	4	1	1	7.313035631652013	16.547130957889866	6.4818417399352155
6	4	1	1	10.813035631652014	16.707130957889866	-2.0181582600647845
7	4	1	1	13.583035631652013	15.907130957889866	0.19184173993521514
8	4	1	1	-1.2769643683479872	15.407130957889866	13.891841739935215
9	4	1	1	7.993035631652013	17.887130957889866	0.6118417399352152
10	4	1	1	9.693035631652013	16.927130957889865	3.1918417399352155
11	4	1	1	9.803035631652012	14.137130957889866	-9.338158260064786
12	4	1	1	13.533035631652012	1.8271309578898658	16.121841739935213
13	4	1	1	5.313035631652013	17.197130957889865	7.921841739935215
14	4	1	1	9.343035631652013	14.227130957889866	9.401841739935215
15	4	1	1	12.813035631652014	16.017130957889865	2.7418417399352153
16	4	1	1	13.153035631652013	13.347130957889865	7.851841739935216
17	4	1	1	6.603035631652013	12.967130957889866	13.071841739935214
18	4	1	1	12.063035631652014	0.4971309578898658	17.011841739935214
19	4	1	1	15.023035631652013	8.597130957889865	11.141841739935215
20	4	1	1	11.003035631652013	10.087130957889865	13.131841739935215
21	4	1	1	7.423035631652013	16.087130957889865	7.4818417399352155
22	4	1	1	5.463035631652013	17.827130957889867	-3.878158260064785
23	4	1	1	13.473035631652014	15.327130957889866	4.551841739935215
24	4	1	1	6.083035631652013	17.417130957889867	5.901841739935215
25	4	1	1	7.923035631652013	15.567130957889866	8.301841739935215
26	4	1	1	13.033035631652012	15.167130957889865	5.421841739935215
27	4	1	1	14.993035631652013	13.797130957889866	5.251841739935215
28	4	1	1	-2.9569643683479874	8.747130957889865	18.821841739935213
29	4	1	1	11.943035631652013	16.377130957889865	3.6118417399352154
30	4	1	1	9.843035631652013	9.417130957889865	14.581841739935214
31	4	1	1	8.093035631652013	16.717130957889864	5.501841739935215
32	4	1	1	7.1130356316520125	17.097130957889867	5.531841739935215
33	4	1	1	9.823035631652013	15.037130957889866	7.4418417399352155
34	4	1	1	14.613035631652012	15.067130957889866	4.331841739935215
35	4	1	1	6.833035631652013	11.357130957889867	14.661841739935214
36	4	1	1	0.8530356316520127	18.487130957889867	5.6918417399352155
37	4	1	1	6.533035631652012	17.437130957889867	-4.288158260064785
38	4	1	1	14.083035631652013	14.617130957889866	5.091841739935215
39	4	1	1	9.923035631652013	17.167130957889867	-0.3981582600647849
40	4	1	1	8.813035631652014	8.977130957889866	15.201841739935215
41	4	1	1	9.563035631652014	12.177130957889865	12.131841739935215
42	4	1	1	2.653035631652013	1.7371309578898657	20.071841739935213
43	4	1	1	13.943035631652013	9.057130957889866	12.091841739935214
44	4	1	1	7.023035631652013	18.297130957889866	2.6718417399352155
45	4	1	1	8.393035631652014	15.297130957889866	7.331841739935215
46	4	1	1	6.963035631652013	15.857130957889867	8.741841739935214
47	4	1	1	4.293035631652013	17.637130957889866	7.141841739935216
48	4	1	1	15.223035631652014	14.217130957889866	4.411841739935215
49	4	1	1	14.473035631652014	15.457130957889866	1.191841739935215
50	4	1	1	15.863035631652012	0.9471309578898658	14.311841739935215
51	4	1	1	2.823035631652013	11.637130957889866	16.401841739935215
52	4	1	1	11.303035631652012	4.387130957889866	16.861841739935215
53	4	1	1	6.323035631652012	7.547130957889866	17.151841739935215
54	4	1	1	-0.40696436834798727	19.207130957889866	1.8518417399352152
55	4	1	1	13.393035631652014	14.447130957889867	6.111841739935215
56	4	1	1	0.7130356316520127	17.327130957889867	-10.208158260064785
57	4	1	1	-8.386964368347988	17.577130957889867	-0.6281582600647848
58	4	1	1	-0.3069643683479873	14.057130957889866	15.131841739935215
59	4	1	1	15.133035631652012	1.0871309578898658	15.171841739935214
60	4	1	1	-17.096964368347987	6.677130957889866	8.671841739935214
61	4	1	1	2.9330356316520128	-16.702869042110134	12.501841739935214
62	4	1	1	-19.616964368347986	5.267130957889866	-7.848158260064785
63	4	1	1	-13.866964368347988	-13.862869042110134	-3.7681582600647845
64	4	1	1	9.383035631652012	-14.832869042110135	-8.138158260064786
65	4	1	1	15.803035631652012	13.347130957889865	4.631841739935215
66	4	1	1	4.713035631652013	-9.292869042110134	-18.328158260064786
67	4	1	1	-11.796964368347988	14.517130957889865	-4.088158260064785
68	4	1	1	-12.586964368347987	7.797130957889866	15.211841739935215
69	4	1	1	-5.3869643683479875	17.987130957889867	3.1718417399352155
70	4	1	1	-5.536964368347987	17.457130957889866	4.151841739935215
71	4	1	1	-17.376964368347988	-6.612869042110134	-10.438158260064785
72	4	1	1	-3.926964368347987	18.137130957889866	5.661841739935215
73	4	1	1	-8.396964368347987	-14.942869042110134	11.141841739935215
74	4	1	1	12.643035631652014	-14.992869042110135	-0.16815826006478488
75	4	1	1	-0.6369643683479873	-3.362869042110134	19.871841739935213
76	4	1	1	0.3630356316520127	9.237130957889866	-18.288158260064787
77	4	1	1	2.9130356316520127	-16.292869042110134	-8.788158260064785
78	4	1	1	0.8230356316520128	-15.912869042110135	-9.868158260064785
79	4	1	1	-14.296964368347988	-0.07286904211013423	15.201841739935215
80	4	1	1	-15.716964368347988	11.037130957889866	1.411841739935215
81	4	1	1	-19.146964368347987	0.5671309578898658	3.5718417399352154
82	4	1	1	-1.0169643683479872	-2.7428690421101343	-21.538158260064787
83	4	1	1	-18.316964368347985	-10.352869042110134	-2.128158260064785
84	4	1	1	4.8630356316520125	-10.412869042110135	18.271841739935216
85	4	1	1	-2.556964368347987	17.807130957889864	-7.908158260064785
86	4	1	1	-10.416964368347987	-4.162869042110134	17.771841739935216
87	4	1	1	9.053035631652012	10.357130957889867	-14.588158260064786
88	4	1	1	-7.876964368347987	-16.662869042110135	8.301841739935215
89	4	1	1	-9.336964368347987	16.487130957889867	-4.618158260064785
90	4	1	1	-15.666964368347987	-12.902869042110135	-1.378158260064785
91	4	1	1	-1.366964368347987	-17.482869042110135	-6.488158260064785
92	4	1	1	4.753035631652013	16.777130957889867	9.881841739935215
93	4	1	1	-20.786964368347988	0.47713095788986576	-8.268158260064785
94	4	1	1	9.323035631652013	15.497130957889865	6.631841739935215
95	4	1	1	15.703035631652012	14.097130957889865	-1.6681582600647848
96	4	1	1	2.693035631652013	-15.332869042110135	-10.768158260064785
97	4	1	1	-10.696964368347988	-6.192869042110134	16.741841739935214
98	4	1	1	7.473035631652013	17.867130957889866	3.9418417399352155
99	4	1	1	-6.8469643683479875	-3.082869042110134	-19.948158260064787
100	4	1	1	1.4530356316520128	-18.562869042110133	5.751841739935215
101	4	1	1	-1.8169643683479872	16.317130957889866	12.931841739935214
102	4	1	1	-18.706964368347986	7.627130957889866	-4.398158260064784
103	4	1	1	-9.806964368347987	-6.022869042110134	-16.888158260064785
104	4	1	1	11.453035631652012	-13.742869042110135	8.611841739935214
105	4	1	1	11.893035631652014	3.447130957889866	16.541841739935215
106	4	1	1	5.063035631652013	-3.502869042110134	19.091841739935216
107	4	1	1	1.9430356316520128	10.447130957889867	-17.278158260064785
108	4	1	1	-2.076964368347987	17.267130957889865	-9.498158260064786
109	4	1	1	5.393035631652013	6.377130957889866	-19.148158260064786
110	4	1	1	-6.376964368347987	4.047130957889866	-20.508158260064786
111	4	1	1	-2.826964368347987	11.257130957889865	-16.798158260064785
112	4	1	1	0.8930356316520127	7.267130957889866	-19.288158260064787
113	4	1	1	2.383035631652013	2.227130957889866	-20.868158260064785
114	4	1	1	6.573035631652012	6.167130957889866	-18.628158260064787
115	4	1	1	12.533035631652012	-0.09286904211013423	-16.758158260064786
116	4	1	1	-15.576964368347987	0.5871309578898658	-16.558158260064786
117	4	1	1	1.5730356316520129	5.207130957889866	-20.408158260064784
118	4	1	1	7.463035631652013	13.487130957889866	-12.468158260064786
119	4	1	1	-1.3069643683479872	11.077130957889866	-17.018158260064787
120	4	1	1	-12.866964368347988	0.15713095788986575	-18.328158260064786
121	4	1	1	8.563035631652014	12.707130957889866	-12.528158260064785
122	4	1	1	2.9130356316520127	0.24713095788986578	-21.118158260064785
123	4	1	1	7.433035631652013	15.107130957889867	-9.978158260064786
124	4	1	1	6.683035631652013	15.667130957889865	-9.278158260064785
125	4	1	1	14.073035631652013	-0.6828690421101342	-15.488158260064786
126	4	1	1	-5.626964368347987	4.877130957889866	-20.578158260064786
127	4	1	1	4.493035631652013	3.627130957889866	-20.048158260064785
128	4	1	1	1.8930356316520127	-4.292869042110134	-20.638158260064785
129	4	1	1	4.163035631652013	13.847130957889865	-14.028158260064785
130	4	1	1	8.583035631652013	16.187130957889867	-6.748158260064785
131	4	1	1	14.193035631652013	-1.8728690421101344	-15.548158260064785
132	4	1	1	10.723035631652014	-7.232869042110134	-15.958158260064785
133	4	1	1	13.743035631652013	10.057130957889866	-11.278158260064785
134	4	1	1	-0.9269643683479872	-0.19286904211013425	-21.318158260064784
135	4	1	1	3.2730356316520126	3.917130957889866	-20.568158260064784
136	4	1	1	-3.8169643683479872	4.947130957889866	-20.598158260064785
137	4	1	1	-12.386964368347988	1.7871309578898658	-18.778158260064785
138	4	1	1	6.8630356316520125	-3.0128690421101343	-19.828158260064786
139	4	1	1	-3.496964368347987	9.787130957889866	-18.108158260064787
140	4	1	1	7.843035631652013	9.907130957889866	-16.068158260064784
141	4	1	1	1.2330356316520128	2.477130957889866	-20.758158260064786
142	4	1	1	0.23303563165201274	-12.992869042110135	-13.858158260064785
143	4	1	1	7.483035631652013	-5.652869042110134	-19.438158260064785
144	4	1	1	6.763035631652013	7.947130957889866	-17.618158260064785
145	4	1	1	-2.8969643683479873	17.417130957889867	-8.688158260064785
146	4	1	1	0.03303563165201273	-3.312869042110134	-21.208158260064785
147	4	1	1	-11.856964368347986	-0.3128690421101342	-18.698158260064787
148	4	1	1	2.963035631652013	-10.872869042110134	-16.558158260064786
149	4	1	1	4.843035631652013	5.167130957889866	-19.528158260064785
150	4	1	1	5.303035631652013	4.097130957889866	-19.798158260064785
151	4	1	1	11.823035631652013	5.077130957889866	-15.698158260064785
152	4	1	1	1.1430356316520127	-11.422869042110134	-15.868158260064785
153	4	1	1	-0.5769643683479873	4.977130957889866	-20.598158260064785
154	4	1	1	2.213035631652013	-1.9428690421101342	-21.048158260064785
155	4	1	1	2.213035631652013	7.007130957889866	-19.538158260064787
156	4	1	1	3.3930356316520127	10.847130957889865	-16.768158260064787
157	4	1	1	4.713035631652013	1.1971309578898657	-20.538158260064787
158	4	1	1	5.603035631652013	7.2871309578898655	-18.428158260064787
159	4	1	1	-6.916964368347987	6.607130957889866	-19.158158260064784
160	4	1	1	-11.756964368347987	-3.652869042110134	-17.508158260064786
161	4	1	1	11.973035631652014	-5.4628690421101345	-16.138158260064785
162	4	1	1	0.22303563165201273	0.8471309578898658	-21.338158260064784
163	4	1	1	-7.106964368347987	5.567130957889866	-19.448158260064787
164	4	1	1	1.0230356316520128	1.5471309578898658	-21.028158260064785
165	4	1	1	3.7030356316520128	5.647130957889866	-19.588158260064784
166	4	1	1	-0.036964368347987275	1.8571309578898656	-21.368158260064785
167	4	1	1	3.553035631652013	1.7071309578898657	-20.938158260064785
168	4	1	1	6.703035631652013	2.617130957889866	-19.808158260064786
169	4	1	1	-8.566964368347987	3.207130957889866	-20.178158260064787
170	4	1	1	9.263035631652013	11.887130957889866	-12.818158260064786
171	4	1	1	5.463035631652013	-12.182869042110134	-15.298158260064785
172	4	1	1	8.313035631652014	2.7371309578898657	-18.558158260064786
173	4	1	1	0.013035631652012727	8.017130957889865	-19.418158260064786
174	4	1	1	11.543035631652012	-2.682869042110134	-17.238158260064786
175	4	1	1	-1.5769643683479873	18.487130957889867	5.261841739935215
176	4	1	1	1.1430356316520127	14.787130957889866	-12.628158260064785
177	4	1	1	-16.126964368347988	9.867130957889866	-7.938158260064784
178	4	1	1	-8.016964368347987	14.697130957889867	-11.248158260064786
179	4	1	1	-9.516964368347987	16.887130957889866	1.211841739935215
180	4	1	1	-0.6969643683479873	19.277130957889867	0.23184173993521512
181	4	1	1	-5.566964368347987	17.237130957889867	6.371841739935215
182	4	1	1	-8.756964368347987	14.767130957889865	-10.308158260064786
183	4	1	1	-10.576964368347987	15.867130957889866	-3.688158260064785
184	4	1	1	-12.766964368347987	14.337130957889865	-0.07815826006478488
185	4	1	1	-10.856964368347986	13.907130957889866	-9.308158260064786
186	4	1	1	-4.796964368347987	17.937130957889867	2.3818417399352154
187	4	1	1	-14.126964368347988	12.927130957889865	0.951841739935215
188	4	1	1	-13.156964368347987	12.277130957889867	-8.638158260064786
189	4	1	1	0.6430356316520127	18.477130957889866	-5.588158260064785
190	4	1	1	-2.496964368347987	18.167130957889867	-6.758158260064785
191	4	1	1	-10.936964368347986	15.547130957889866	-4.798158260064785
192	4	1	1	-5.536964368347987	14.377130957889866	-12.728158260064786
193	4	1	1	-8.656964368347987	11.027130957889867	-15.528158260064785
194	4	1	1	-10.816964368347987	14.517130957889865	-7.568158260064784
195	4	1	1	-6.036964368347987	16.707130957889866	-8.918158260064786
196	4	1	1	5.6930356316520125	17.827130957889867	-5.188158260064784
197	4	1	1	-18.90696436834799	6.627130957889866	-6.238158260064785
198	4	1	1	-16.596964368347987	8.377130957889866	-10.548158260064785
199	4	1	1	-4.416964368347987	18.367130957889866	-0.21815826006478486
200	4	1	1	-18.216964368347988	7.347130957889866	2.4318417399352152
201	4	1	1	-9.646964368347987	10.917130957889865	-15.138158260064786
202	4	1	1	-15.486964368347987	10.447130957889867	-7.098158260064785
203	4	1	1	-12.236964368347987	12.987130957889866	-9.198158260064785
204	4	1	1	-18.706964368347986	7.737130957889866	-0.778158260064785
205	4	1	1	-12.446964368347988	13.917130957889865	4.4818417399352155
206	4	1	1	-12.166964368347987	9.967130957889866	14.611841739935214
207	4	1	1	-21.166964368347987	-3.912869042110134	-4.898158260064784
208	4	1	1	-7.036964368347987	12.107130957889867	-15.518158260064785
209	4	1	1	-7.366964368347987	16.757130957889867	5.571841739935215
210	4	1	1	-12.436964368347986	13.017130957889865	-8.088158260064786
211	4	1	1	-13.906964368347987	11.507130957889865	-7.948158260064785
212	4	1	1	-6.046964368347987	17.067130957889866	-7.988158260064785
213	4	1	1	-8.086964368347987	15.907130957889866	-7.918158260064785
214	4	1	1	-9.566964368347987	16.627130957889865	-3.628158260064785
215	4	1	1	-20.046964368347986	1.8271309578898658	0.681841739935215
216	4	1	1	-15.966964368347988	10.837130957889865	-2.2981582600647847
217	4	1	1	-11.876964368347988	14.777130957889867	-2.958158260064785
218	4	1	1	-4.266964368347987	18.267130957889865	-2.4881582600647847
219	4	1	1	-10.366964368347988	16.387130957889866	-2.708158260064785
220	4	1	1	-11.236964368347987	15.607130957889867	-0.9781582600647849
221	4	1	1	-8.236964368347987	16.877130957889865	-4.798158260064785
222	4	1	1	-4.726964368347987	9.647130957889866	-18.318158260064784
223	4	1	1	-11.796964368347988	15.157130957889866	-1.728158260064785
224	4	1	1	-8.446964368347988	17.277130957889867	1.5618417399352151
225	4	1	1	-6.486964368347987	18.157130957889866	0.9818417399352151
226	4	1	1	-8.806964368347987	16.397130957889868	-5.688158260064784
227	4	1	1	-8.686964368347986	13.037130957889866	-12.928158260064786
228	4	1	1	-3.616964368347987	18.077130957889867	-6.348158260064785
229	4	1	1	-17.576964368347987	9.267130957889865	0.4018417399352151
230	4	1	1	-7.676964368347988	12.427130957889865	-14.698158260064785
231	4	1	1	-18.636964368347986	7.257130957889866	-5.358158260064784
232	4	1	1	-6.906964368347987	16.307130957889864	-8.678158260064786
233	4	1	1	-11.166964368347987	15.537130957889866	-2.5681582600647848
234	4	1	1	-15.036964368347988	4.7471309578898655	-15.688158260064785
235	4	1	1	-5.956964368347987	17.967130957889864	-5.818158260064784
236	4	1	1	-12.266964368347987	6.847130957889866	-16.658158260064784
237	4	1	1	-16.056964368347987	9.017130957889865	4.421841739935215
238	4	1	1	-13.526964368347986	4.717130957889866	-16.858158260064787
239	4	1	1	-6.086964368347987	8.197130957889867	-19.058158260064786
240	4	1	1	-3.6669643683479873	15.927130957889865	-11.008158260064786
241	4	1	1	-11.776964368347986	15.297130957889866	0.4018417399352151
242	4	1	1	9.233035631652013	16.577130957889867	-4.418158260064785
243	4	1	1	-5.356964368347987	11.107130957889867	-17.008158260064786
244	4	1	1	-15.696964368347988	4.947130957889866	-14.928158260064786
245	4	1	1	-18.126964368347988	6.567130957889866	-11.358158260064785
246	4	1	1	7.763035631652013	11.007130957889865	14.241841739935214
247	4	1	1	5.433035631652013	16.067130957889866	10.011841739935214
248	4	1	1	-3.1069643683479873	-2.2228690421101343	20.181841739935216
249	4	1	1	-11.836964368347987	13.867130957889866	8.221841739935215
250	4	1	1	11.713035631652012	7.957130957889866	14.841841739935214
251	4	1	1	-8.016964368347987	-12.992869042110135	14.291841739935215
252	4	1	1	-0.3269643683479873	12.667130957889865	16.131841739935215
253	4	1	1	5.563035631652013	8.237130957889866	17.291841739935215
254	4	1	1	-9.356964368347986	7.907130957889866	17.721841739935215
255	4	1	1	-3.526964368347987	-5.322869042110134	19.731841739935213
256	4	1	1	-8.436964368347986	5.357130957889866	19.031841739935214
257	4	1	1	-19.816964368347985	-7.522869042110134	-0.9681582600647849
258	4	1	1	-17.046964368347986	-1.0528690421101343	11.961841739935215
259	4	1	1	-1.0969643683479873	11.177130957889865	17.661841739935216
260	4	1	1	-6.266964368347987	12.457130957889866	16.441841739935214
261	4	1	1	-5.8469643683479875	17.047130957889866	8.811841739935215
262	4	1	1	-4.976964368347987	-6.402869042110134	19.301841739935213
263	4	1	1	-12.636964368347988	-8.732869042110135	13.781841739935214
264	4	1	1	-2.306964368347987	-4.552869042110134	19.851841739935214
265	4	1	1	-6.3069643683479875	-3.112869042110134	19.901841739935215
266	4	1	1	-11.826964368347987	6.207130957889866	16.721841739935215
267	4	1	1	0.7730356316520127	-1.6928690421101342	20.521841739935216
268	4	1	1	0.5630356316520128	12.207130957889866	16.571841739935213
269	4	1	1	2.4530356316520128	8.417130957889865	18.271841739935216
270	4	1	1	-2.5869643683479873	-19.112869042110134	5.2718417399352155
271	4	1	1	-8.196964368347988	6.517130957889866	18.971841739935215
272	4	1	1	-2.7969643683479872	2.997130957889866	20.391841739935213
273	4	1	1	-14.166964368347987	7.667130957889866	13.641841739935215
274	4	1	1	-5.536964368347987	-9.772869042110134	17.491841739935214
275	4	1	1	-1.7169643683479872	18.867130957889866	0.27184173993521515
276	4	1	1	-5.226964368347987	6.277130957889866	19.071841739935213
277	4	1	1	-2.906964368347987	12.147130957889866	17.131841739935215
278	4	1	1	3.8730356316520127	7.897130957889866	18.021841739935216
279	4	1	1	2.3330356316520127	10.567130957889866	17.221841739935215
280	4	1	1	-11.256964368347987	5.587130957889866	17.441841739935214
281	4	1	1	-2.676964368347987	-3.122869042110134	20.041841739935215
282	4	1	1	-1.5869643683479873	2.697130957889866	20.631841739935215
283	4	1	1	6.703035631652013	-1.0328690421101343	18.931841739935216
284	4	1	1	-7.496964368347987	0.9971309578898658	19.231841739935213
285	4	1	1	-10.016964368347987	7.327130957889866	17.931841739935216
286	4	1	1	7.6130356316520125	14.517130957889865	11.001841739935214
287	4	1	1	7.253035631652013	-6.702869042110134	18.621841739935213
288	4	1	1	6.383035631652013	2.717130957889866	18.671841739935214
289	4	1	1	-2.116964368347987	13.097130957889865	16.361841739935215
290	4	1	1	-13.696964368347988	-2.9928690421101343	15.481841739935215
291	4	1	1	3.5830356316520127	1.7371309578898657	19.621841739935213
292	4	1	1	-9.616964368347988	1.2671309578898657	18.341841739935216
293	4	1	1	-7.3869643683479875	9.677130957889865	17.691841739935214
294	4	1	1	1.2430356316520128	17.117130957889866	9.721841739935215
295	4	1	1	-8.436964368347986	4.267130957889866	19.051841739935213
296	4	1	1	-9.726964368347987	-7.612869042110134	16.861841739935215
297	4	1	1	-3.036964368347987	7.437130957889866	19.001841739935216
298	4	1	1	5.673035631652013	10.107130957889867	16.351841739935214
299	4	1	1	1.7030356316520128	-4.0028690421101345	19.941841739935214
300	4	1	1	-3.266964368347987	-4.202869042110134	19.931841739935216
301	4	1	1	0.12303563165201273	-9.602869042110134	18.771841739935216
302	4	1	1	-2.246964368347987	3.807130957889866	20.231841739935213
303	4	1	1	-10.176964368347987	-5.532869042110134	17.521841739935216
304	4	1	1	-7.606964368347987	-4.672869042110134	19.301841739935213
305	4	1	1	-2.256964368347987	6.657130957889866	19.391841739935213
306	4	1	1	12.983035631652013	5.117130957889866	15.771841739935214
307	4	1	1	-5.0569643683479875	-3.502869042110134	20.101841739935214
308	4	1	1	-15.276964368347986	-10.592869042110134	9.561841739935215
309	4	1	1	-13.736964368347987	-13.672869042110134	5.621841739935215
310	4	1	1	-0.5969643683479873	-11.772869042110134	17.911841739935216
311	4	1	1	4.073035631652012	-14.932869042110134	15.341841739935214
312	4	1	1	-3.256964368347987	-1.1228690421101344	20.411841739935216
313	4	1	1	-3.8369643683479873	-9.412869042110135	18.191841739935214
314	4	1	1	-5.826964368347987	-13.652869042110135	15.191841739935214
315	4	1	1	-2.7069643683479874	9.837130957889865	18.511841739935214
316	4	1	1	-6.896964368347987	4.447130957889866	19.361841739935215
317	4	1	1	9.903035631652013	13.497130957889865	-10.408158260064786
318	4	1	1	15.073035631652013	13.017130957889865	6.491841739935215
319	4	1	1	1.373035631652013	18.077130957889867	-8.368158260064785
320	4	1	1	10.363035631652012	1.2371309578898657	17.851841739935214
321	4	1	1	4.413035631652013	14.387130957889866	12.771841739935214
322	4	1	1	14.223035631652014	13.227130957889866	7.221841739935216
323	4	1	1	8.543035631652012	17.017130957889865	-3.998158260064785
324	4	1	1	15.803035631652012	14.447130957889867	2.581841739935215
325	4	1	1	14.653035631652013	15.157130957889866	3.311841739935215
326	4	1	1	11.463035631652012	-3.412869042110134	17.321841739935213
327	4	1	1	14.753035631652013	13.717130957889866	-3.5281582600647847
328	4	1	1	8.703035631652012	17.527130957889867	2.521841739935215
329	4	1	1	8.523035631652013	14.867130957889866	8.991841739935214
330	4	1	1	9.683035631652013	11.347130957889865	12.851841739935214
331	4	1	1	14.753035631652013	12.197130957889867	7.321841739935215
332	4	1	1	5.163035631652013	11.467130957889866	15.421841739935214
333	4	1	1	13.523035631652013	4.057130957889866	-14.798158260064785
334	4	1	1	5.973035631652013	18.407130957889866	0.691841739935215
335	4	1	1	14.173035631652013	12.437130957889867	8.021841739935214
336	4	1	1	13.833035631652013	14.057130957889866	-4.128158260064785
337	4	1	1	6.373035631652013	17.667130957889867	-3.108158260064785
338	4	1	1	-1.6669643683479871	16.807130957889864	-10.378158260064785
339	4	1	1	13.203035631652012	15.167130957889865	-2.3281582600647845
340	4	1	1	16.633035631652014	13.927130957889865	2.1518417399352154
341	4	1	1	12.283035631652012	13.437130957889867	8.141841739935215
342	4	1	1	5.533035631652012	18.487130957889867	-1.1381582600647848
343	4	1	1	-2.3369643683479873	18.197130957889865	7.4818417399352155
344	4	1	1	10.953035631652012	17.167130957889867	1.701841739935215
345	4	1	1	10.113035631652012	13.327130957889866	9.751841739935214
346	4	1	1	14.433035631652013	11.137130957889866	9.491841739935214
347	4	1	1	-0.1769643683479873	6.647130957889866	-20.128158260064787
348	4	1	1	-14.546964368347988	9.967130957889866	9.791841739935215
349	4	1	1	4.283035631652012	15.197130957889867	11.821841739935214
350	4	1	1	-13.246964368347987	12.147130957889866	7.991841739935215
351	4	1	1	6.173035631652013	18.517130957889865	3.5318417399352153
352	4	1	1	-0.5169643683479873	19.137130957889866	2.8018417399352153
353	4	1	1	-13.586964368347987	13.567130957889866	-0.9481582600647849
354	4	1	1	-2.196964368347987	18.057130957889864	8.521841739935214
355	4	1	1	1.613035631652013	17.697130957889865	-9.328158260064786
356	4	1	1	9.503035631652013	16.937130957889867	-2.478158260064785
357	4	1	1	-4.296964368347987	17.997130957889865	3.5718417399352154
358	4	1	1	-0.3469643683479873	18.327130957889867	-5.238158260064785
359	4	1	1	-3.116964368347987	18.057130957889864	7.951841739935215
360	4	1	1	-1.7369643683479872	18.937130957889867	-0.6981582600647849
361	4	1	1	-6.966964368347988	17.937130957889867	-2.0681582600647848
362	4	1	1	-8.926964368347987	15.327130957889866	-8.268158260064785
363	4	1	1	6.813035631652013	17.917130957889867	-0.8881582600647848
364	4	1	1	-10.016964368347987	14.687130957889867	9.521841739935214
365	4	1	1	-5.446964368347987	17.307130957889864	5.2718417399352155
366	4	1	1	-12.446964368347988	14.207130957889866	-2.2781582600647847
367	4	1	1	1.5830356316520129	19.567130957889866	0.5118417399352151
368	4	1	1	-4.416964368347987	14.067130957889866	-13.858158260064785
369	4	1	1	4.773035631652013	11.937130957889867	-15.318158260064786
370	4	1	1	-7.756964368347987	16.847130957889867	-5.658158260064785
371	4	1	1	-13.436964368347986	13.177130957889865	-3.1981582600647847
372	4	1	1	-8.076964368347987	14.317130957889866	12.031841739935214
373	4	1	1	8.163035631652013	15.707130957889866	-7.4781582600647845
374	4	1	1	-6.776964368347987	16.777130957889867	6.421841739935215
375	4	1	1	3.4530356316520128	18.697130957889865	-3.2381582600647847
376	4	1	1	4.293035631652013	18.667130957889867	2.371841739935215
377	4	1	1	-2.8969643683479873	18.507130957889867	-4.258158260064785
378	4	1	1	-9.146964368347987	17.167130957889867	-2.688158260064785
379	4	1	1	6.003035631652013	18.327130957889867	-0.41815826006478485
380	4	1	1	6.293035631652013	16.847130957889867	-7.078158260064785
381	4	1	1	4.923035631652013	15.537130957889866	-10.458158260064785
382	4	1	1	-16.526964368347986	8.067130957889866	5.261841739935215
383	4	1	1	7.283035631652012	13.737130957889866	12.061841739935215
384	4	1	1	-0.9069643683479873	18.037130957889865	8.851841739935214
385	4	1	1	-6.046964368347987	17.947130957889865	2.101841739935215
386	4	1	1	-1.8569643683479873	18.447130957889865	-3.748158260064785
387	4	1	1	-4.0569643683479875	17.867130957889866	8.041841739935215
388	4	1	1	-1.8069643683479872	18.547130957889866	-2.8181582600647848
389	4	1	1	-14.286964368347988	11.497130957889865	5.541841739935215
390	4	1	1	-12.796964368347988	12.127130957889866	-9.678158260064786
391	4	1	1	5.673035631652013	11.667130957889865	-15.098158260064785
392	4	1	1	3.483035631652013	17.877130957889865	-7.738158260064785
393	4	1	1	-2.9769643683479874	18.217130957889864	6.171841739935215
394	4	1	1	7.963035631652013	7.757130957889866	-17.188158260064785
395	4	1	1	-4.736964368347987	17.717130957889864	4.621841739935215
396	4	1	1	2.1030356316520127	19.137130957889866	2.6318417399352154
397	4	1	1	-5.086964368347987	17.557130957889864	7.9418417399352155
398	4	1	1	-12.256964368347987	13.937130957889867	-6.108158260064784
399	4	1	1	-11.286964368347988	11.697130957889867	-12.448158260064785
400	4	1	1	-11.926964368347987	13.627130957889866	-7.288158260064785
401	4	1	1	-0.3469643683479873	19.067130957889866	-1.078158260064785
402	4	1	1	-11.526964368347986	14.477130957889866	6.251841739935215
403	4	1	1	-7.486964368347987	17.817130957889866	-0.09815826006478487
404	4	1	1	3.2930356316520126	8.857130957889867	-18.108158260064787
405	4	1	1	-3.746964368347987	18.307130957889864	-0.798158260064785
406	4	1	1	-7.3069643683479875	7.857130957889866	-18.918158260064786
407	4	1	1	16.203035631652014	14.107130957889867	-0.528158260064785
408	4	1	1	-2.886964368347987	18.407130957889866	-2.8881582600647846
409	4	1	1	3.593035631652013	15.967130957889866	11.371841739935215
410	4	1	1	3.0230356316520126	18.807130957889864	3.4918417399352153
411	4	1	1	-5.866964368347987	9.227130957889866	-18.578158260064786
412	4	1	1	-2.2269643683479874	10.527130957889867	-17.518158260064787
413	4	1	1	-2.156964368347987	18.467130957889864	-1.6381582600647848
414	4	1	1	-5.126964368347987	18.007130957889867	-5.138158260064785
415	4	1	1	-5.676964368347988	18.337130957889865	0.3518417399352151
416	4	1	1	3.013035631652013	18.057130957889864	6.501841739935215
417	4	1	1	4.743035631652013	16.887130957889866	-8.768158260064785
418	4	1	1	-2.236964368347987	18.827130957889867	1.191841739935215
419	4	1	1	-3.5669643683479872	11.527130957889867	17.621841739935213
420	4	1	1	-6.816964368347987	11.537130957889866	17.011841739935214
421	4	1	1	3.193035631652013	12.937130957889867	15.001841739935214
422	4	1	1	-9.896964368347987	15.857130957889867	6.431841739935216
423	4	1	1	-0.40696436834798727	12.007130957889865	17.081841739935214
424	4	1	1	-10.576964368347987	7.807130957889866	17.141841739935213
425	4	1	1	-0.1269643683479873	18.057130957889864	7.991841739935215
426	4	1	1	-0.4969643683479873	4.227130957889866	19.821841739935213
427	4	1	1	-15.546964368347988	6.487130957889866	12.431841739935214
428	4	1	1	-5.086964368347987	8.497130957889865	18.661841739935216
429	4	1	1	2.173035631652013	-7.142869042110134	19.051841739935213
430	4	1	1	-6.336964368347987	5.367130957889866	19.431841739935216
431	4	1	1	-12.486964368347987	11.287130957889866	12.151841739935215
432	4	1	1	-13.826964368347987	0.9871309578898658	15.271841739935214
433	4	1	1	2.443035631652013	12.797130957889866	15.741841739935214
434	4	1	1	-7.506964368347987	5.457130957889866	19.391841739935213
435	4	1	1	-8.326964368347987	1.8771309578898656	18.631841739935215
436	4	1	1	-15.316964368347987	8.737130957889866	7.891841739935216
437	4	1	1	1.0530356316520129	16.387130957889866	11.291841739935215
438	4	1	1	-3.246964368347987	1.0671309578898658	20.381841739935215
439	4	1	1	-15.216964368347988	8.527130957889867	10.851841739935214
440	4	1	1	-8.336964368347987	0.8371309578898658	18.591841739935216
441	4	1	1	-12.146964368347987	7.487130957889866	16.161841739935216
442	4	1	1	-10.676964368347987	-0.5528690421101342	17.761841739935214
443	4	1	1	-13.026964368347986	13.037130957889866	4.591841739935215
444	4	1	1	5.383035631652013	15.467130957889866	11.031841739935214